s 0.000000000 _0_ AGT  --- 0 cbr 1000 [0 0 0 0] ------- [0:0 18:0 32 0] [0] 0 0
r 0.000000000 _0_ RTR  --- 0 cbr 1000 [0 0 0 0] ------- [0:0 18:0 32 0] [0] 0 0
v 0 eval {set sim_annotation {MOBILE NODE MOVEMENTS}}
s 0.000000000 _0_ RTR  --- 0 AODV 48 [0 0 0 0] ------- [0:255 -1:255 30 0] [0x2 1 1 [18 0] [0 4]] (REQUEST)
s 0.000295000 _0_ MAC  --- 0 AODV 106 [0 ffffffff 0 800] ------- [0:255 -1:255 30 0] [0x2 1 1 [18 0] [0 4]] (REQUEST)
r 0.001143520 _12_ MAC  --- 0 AODV 48 [0 ffffffff 0 800] ------- [0:255 -1:255 30 0] [0x2 1 1 [18 0] [0 4]] (REQUEST)
r 0.001143527 _15_ MAC  --- 0 AODV 48 [0 ffffffff 0 800] ------- [0:255 -1:255 30 0] [0x2 1 1 [18 0] [0 4]] (REQUEST)
r 0.001143533 _18_ MAC  --- 0 AODV 48 [0 ffffffff 0 800] ------- [0:255 -1:255 30 0] [0x2 1 1 [18 0] [0 4]] (REQUEST)
r 0.001143555 _14_ MAC  --- 0 AODV 48 [0 ffffffff 0 800] ------- [0:255 -1:255 30 0] [0x2 1 1 [18 0] [0 4]] (REQUEST)
r 0.001143717 _17_ MAC  --- 0 AODV 48 [0 ffffffff 0 800] ------- [0:255 -1:255 30 0] [0x2 1 1 [18 0] [0 4]] (REQUEST)
r 0.001143737 _9_ MAC  --- 0 AODV 48 [0 ffffffff 0 800] ------- [0:255 -1:255 30 0] [0x2 1 1 [18 0] [0 4]] (REQUEST)
r 0.001143762 _19_ MAC  --- 0 AODV 48 [0 ffffffff 0 800] ------- [0:255 -1:255 30 0] [0x2 1 1 [18 0] [0 4]] (REQUEST)
r 0.001143786 _8_ MAC  --- 0 AODV 48 [0 ffffffff 0 800] ------- [0:255 -1:255 30 0] [0x2 1 1 [18 0] [0 4]] (REQUEST)
r 0.001143797 _7_ MAC  --- 0 AODV 48 [0 ffffffff 0 800] ------- [0:255 -1:255 30 0] [0x2 1 1 [18 0] [0 4]] (REQUEST)
r 0.001143865 _22_ MAC  --- 0 AODV 48 [0 ffffffff 0 800] ------- [0:255 -1:255 30 0] [0x2 1 1 [18 0] [0 4]] (REQUEST)
r 0.001143927 _16_ MAC  --- 0 AODV 48 [0 ffffffff 0 800] ------- [0:255 -1:255 30 0] [0x2 1 1 [18 0] [0 4]] (REQUEST)
r 0.001144047 _4_ MAC  --- 0 AODV 48 [0 ffffffff 0 800] ------- [0:255 -1:255 30 0] [0x2 1 1 [18 0] [0 4]] (REQUEST)
r 0.001144112 _10_ MAC  --- 0 AODV 48 [0 ffffffff 0 800] ------- [0:255 -1:255 30 0] [0x2 1 1 [18 0] [0 4]] (REQUEST)
r 0.001144128 _11_ MAC  --- 0 AODV 48 [0 ffffffff 0 800] ------- [0:255 -1:255 30 0] [0x2 1 1 [18 0] [0 4]] (REQUEST)
r 0.001144182 _13_ MAC  --- 0 AODV 48 [0 ffffffff 0 800] ------- [0:255 -1:255 30 0] [0x2 1 1 [18 0] [0 4]] (REQUEST)
r 0.001144207 _6_ MAC  --- 0 AODV 48 [0 ffffffff 0 800] ------- [0:255 -1:255 30 0] [0x2 1 1 [18 0] [0 4]] (REQUEST)
r 0.001144278 _5_ MAC  --- 0 AODV 48 [0 ffffffff 0 800] ------- [0:255 -1:255 30 0] [0x2 1 1 [18 0] [0 4]] (REQUEST)
r 0.001144330 _3_ MAC  --- 0 AODV 48 [0 ffffffff 0 800] ------- [0:255 -1:255 30 0] [0x2 1 1 [18 0] [0 4]] (REQUEST)
r 0.001144435 _20_ MAC  --- 0 AODV 48 [0 ffffffff 0 800] ------- [0:255 -1:255 30 0] [0x2 1 1 [18 0] [0 4]] (REQUEST)
r 0.001144491 _21_ MAC  --- 0 AODV 48 [0 ffffffff 0 800] ------- [0:255 -1:255 30 0] [0x2 1 1 [18 0] [0 4]] (REQUEST)
r 0.001144591 _2_ MAC  --- 0 AODV 48 [0 ffffffff 0 800] ------- [0:255 -1:255 30 0] [0x2 1 1 [18 0] [0 4]] (REQUEST)
r 0.001146110 _1_ MAC  --- 0 AODV 48 [0 ffffffff 0 800] ------- [0:255 -1:255 30 0] [0x2 1 1 [18 0] [0 4]] (REQUEST)
r 0.001168520 _12_ RTR  --- 0 AODV 48 [0 ffffffff 0 800] ------- [0:255 -1:255 30 0] [0x2 1 1 [18 0] [0 4]] (REQUEST)
r 0.001168527 _15_ RTR  --- 0 AODV 48 [0 ffffffff 0 800] ------- [0:255 -1:255 30 0] [0x2 1 1 [18 0] [0 4]] (REQUEST)
r 0.001168533 _18_ RTR  --- 0 AODV 48 [0 ffffffff 0 800] ------- [0:255 -1:255 30 0] [0x2 1 1 [18 0] [0 4]] (REQUEST)
s 0.001168533 _18_ RTR  --- 0 AODV 44 [0 0 0 0] ------- [18:255 0:255 30 0] [0x4 1 [18 4] 10.000000] (REPLY)
r 0.001168555 _14_ RTR  --- 0 AODV 48 [0 ffffffff 0 800] ------- [0:255 -1:255 30 0] [0x2 1 1 [18 0] [0 4]] (REQUEST)
r 0.001168717 _17_ RTR  --- 0 AODV 48 [0 ffffffff 0 800] ------- [0:255 -1:255 30 0] [0x2 1 1 [18 0] [0 4]] (REQUEST)
r 0.001168737 _9_ RTR  --- 0 AODV 48 [0 ffffffff 0 800] ------- [0:255 -1:255 30 0] [0x2 1 1 [18 0] [0 4]] (REQUEST)
r 0.001168762 _19_ RTR  --- 0 AODV 48 [0 ffffffff 0 800] ------- [0:255 -1:255 30 0] [0x2 1 1 [18 0] [0 4]] (REQUEST)
r 0.001168786 _8_ RTR  --- 0 AODV 48 [0 ffffffff 0 800] ------- [0:255 -1:255 30 0] [0x2 1 1 [18 0] [0 4]] (REQUEST)
r 0.001168797 _7_ RTR  --- 0 AODV 48 [0 ffffffff 0 800] ------- [0:255 -1:255 30 0] [0x2 1 1 [18 0] [0 4]] (REQUEST)
r 0.001168865 _22_ RTR  --- 0 AODV 48 [0 ffffffff 0 800] ------- [0:255 -1:255 30 0] [0x2 1 1 [18 0] [0 4]] (REQUEST)
r 0.001168927 _16_ RTR  --- 0 AODV 48 [0 ffffffff 0 800] ------- [0:255 -1:255 30 0] [0x2 1 1 [18 0] [0 4]] (REQUEST)
r 0.001169047 _4_ RTR  --- 0 AODV 48 [0 ffffffff 0 800] ------- [0:255 -1:255 30 0] [0x2 1 1 [18 0] [0 4]] (REQUEST)
r 0.001169112 _10_ RTR  --- 0 AODV 48 [0 ffffffff 0 800] ------- [0:255 -1:255 30 0] [0x2 1 1 [18 0] [0 4]] (REQUEST)
r 0.001169128 _11_ RTR  --- 0 AODV 48 [0 ffffffff 0 800] ------- [0:255 -1:255 30 0] [0x2 1 1 [18 0] [0 4]] (REQUEST)
r 0.001169182 _13_ RTR  --- 0 AODV 48 [0 ffffffff 0 800] ------- [0:255 -1:255 30 0] [0x2 1 1 [18 0] [0 4]] (REQUEST)
r 0.001169207 _6_ RTR  --- 0 AODV 48 [0 ffffffff 0 800] ------- [0:255 -1:255 30 0] [0x2 1 1 [18 0] [0 4]] (REQUEST)
r 0.001169278 _5_ RTR  --- 0 AODV 48 [0 ffffffff 0 800] ------- [0:255 -1:255 30 0] [0x2 1 1 [18 0] [0 4]] (REQUEST)
r 0.001169330 _3_ RTR  --- 0 AODV 48 [0 ffffffff 0 800] ------- [0:255 -1:255 30 0] [0x2 1 1 [18 0] [0 4]] (REQUEST)
r 0.001169435 _20_ RTR  --- 0 AODV 48 [0 ffffffff 0 800] ------- [0:255 -1:255 30 0] [0x2 1 1 [18 0] [0 4]] (REQUEST)
r 0.001169491 _21_ RTR  --- 0 AODV 48 [0 ffffffff 0 800] ------- [0:255 -1:255 30 0] [0x2 1 1 [18 0] [0 4]] (REQUEST)
r 0.001169591 _2_ RTR  --- 0 AODV 48 [0 ffffffff 0 800] ------- [0:255 -1:255 30 0] [0x2 1 1 [18 0] [0 4]] (REQUEST)
r 0.001171110 _1_ RTR  --- 0 AODV 48 [0 ffffffff 0 800] ------- [0:255 -1:255 30 0] [0x2 1 1 [18 0] [0 4]] (REQUEST)
s 0.001618861 _19_ RTR  --- 0 AODV 48 [0 ffffffff 0 800] ------- [19:255 -1:255 29 0] [0x2 2 1 [18 0] [0 4]] (REQUEST)
s 0.001663533 _18_ MAC  --- 0 ARP 86 [0 ffffffff 12 806] ------- [REQUEST 18/18 0/0]
r 0.002351827 _17_ MAC  --- 0 ARP 28 [0 ffffffff 12 806] ------- [REQUEST 18/18 0/0]
r 0.002352066 _0_ MAC  --- 0 ARP 28 [0 ffffffff 12 806] ------- [REQUEST 18/18 0/0]
r 0.002352097 _15_ MAC  --- 0 ARP 28 [0 ffffffff 12 806] ------- [REQUEST 18/18 0/0]
r 0.002352264 _16_ MAC  --- 0 ARP 28 [0 ffffffff 12 806] ------- [REQUEST 18/18 0/0]
r 0.002352289 _22_ MAC  --- 0 ARP 28 [0 ffffffff 12 806] ------- [REQUEST 18/18 0/0]
r 0.002352471 _19_ MAC  --- 0 ARP 28 [0 ffffffff 12 806] ------- [REQUEST 18/18 0/0]
r 0.002352491 _12_ MAC  --- 0 ARP 28 [0 ffffffff 12 806] ------- [REQUEST 18/18 0/0]
r 0.002352507 _14_ MAC  --- 0 ARP 28 [0 ffffffff 12 806] ------- [REQUEST 18/18 0/0]
r 0.002352522 _9_ MAC  --- 0 ARP 28 [0 ffffffff 12 806] ------- [REQUEST 18/18 0/0]
r 0.002352731 _10_ MAC  --- 0 ARP 28 [0 ffffffff 12 806] ------- [REQUEST 18/18 0/0]
r 0.002352846 _7_ MAC  --- 0 ARP 28 [0 ffffffff 12 806] ------- [REQUEST 18/18 0/0]
r 0.002352849 _8_ MAC  --- 0 ARP 28 [0 ffffffff 12 806] ------- [REQUEST 18/18 0/0]
r 0.002352984 _4_ MAC  --- 0 ARP 28 [0 ffffffff 12 806] ------- [REQUEST 18/18 0/0]
r 0.002353003 _21_ MAC  --- 0 ARP 28 [0 ffffffff 12 806] ------- [REQUEST 18/18 0/0]
r 0.002353076 _13_ MAC  --- 0 ARP 28 [0 ffffffff 12 806] ------- [REQUEST 18/18 0/0]
r 0.002353146 _11_ MAC  --- 0 ARP 28 [0 ffffffff 12 806] ------- [REQUEST 18/18 0/0]
r 0.002353156 _20_ MAC  --- 0 ARP 28 [0 ffffffff 12 806] ------- [REQUEST 18/18 0/0]
r 0.002353162 _3_ MAC  --- 0 ARP 28 [0 ffffffff 12 806] ------- [REQUEST 18/18 0/0]
r 0.002353272 _6_ MAC  --- 0 ARP 28 [0 ffffffff 12 806] ------- [REQUEST 18/18 0/0]
r 0.002353306 _5_ MAC  --- 0 ARP 28 [0 ffffffff 12 806] ------- [REQUEST 18/18 0/0]
r 0.002353539 _2_ MAC  --- 0 ARP 28 [0 ffffffff 12 806] ------- [REQUEST 18/18 0/0]
r 0.002354297 _1_ MAC  --- 0 ARP 28 [0 ffffffff 12 806] ------- [REQUEST 18/18 0/0]
s 0.002423915 _14_ RTR  --- 0 AODV 48 [0 ffffffff 0 800] ------- [14:255 -1:255 29 0] [0x2 2 1 [18 0] [0 4]] (REQUEST)
s 0.002878915 _14_ MAC  --- 0 AODV 106 [0 ffffffff e 800] ------- [14:255 -1:255 29 0] [0x2 2 1 [18 0] [0 4]] (REQUEST)
s 0.003021088 _22_ RTR  --- 0 AODV 48 [0 ffffffff 0 800] ------- [22:255 -1:255 29 0] [0x2 2 1 [18 0] [0 4]] (REQUEST)
r 0.003727256 _9_ MAC  --- 0 AODV 48 [0 ffffffff e 800] ------- [14:255 -1:255 29 0] [0x2 2 1 [18 0] [0 4]] (REQUEST)
r 0.003727375 _7_ MAC  --- 0 AODV 48 [0 ffffffff e 800] ------- [14:255 -1:255 29 0] [0x2 2 1 [18 0] [0 4]] (REQUEST)
r 0.003727409 _4_ MAC  --- 0 AODV 48 [0 ffffffff e 800] ------- [14:255 -1:255 29 0] [0x2 2 1 [18 0] [0 4]] (REQUEST)
r 0.003727470 _0_ MAC  --- 0 AODV 48 [0 ffffffff e 800] ------- [14:255 -1:255 29 0] [0x2 2 1 [18 0] [0 4]] (REQUEST)
r 0.003727479 _15_ MAC  --- 0 AODV 48 [0 ffffffff e 800] ------- [14:255 -1:255 29 0] [0x2 2 1 [18 0] [0 4]] (REQUEST)
r 0.003727620 _8_ MAC  --- 0 AODV 48 [0 ffffffff e 800] ------- [14:255 -1:255 29 0] [0x2 2 1 [18 0] [0 4]] (REQUEST)
r 0.003727700 _10_ MAC  --- 0 AODV 48 [0 ffffffff e 800] ------- [14:255 -1:255 29 0] [0x2 2 1 [18 0] [0 4]] (REQUEST)
r 0.003727710 _3_ MAC  --- 0 AODV 48 [0 ffffffff e 800] ------- [14:255 -1:255 29 0] [0x2 2 1 [18 0] [0 4]] (REQUEST)
r 0.003727740 _5_ MAC  --- 0 AODV 48 [0 ffffffff e 800] ------- [14:255 -1:255 29 0] [0x2 2 1 [18 0] [0 4]] (REQUEST)
r 0.003727753 _12_ MAC  --- 0 AODV 48 [0 ffffffff e 800] ------- [14:255 -1:255 29 0] [0x2 2 1 [18 0] [0 4]] (REQUEST)
r 0.003727853 _6_ MAC  --- 0 AODV 48 [0 ffffffff e 800] ------- [14:255 -1:255 29 0] [0x2 2 1 [18 0] [0 4]] (REQUEST)
r 0.003727865 _16_ MAC  --- 0 AODV 48 [0 ffffffff e 800] ------- [14:255 -1:255 29 0] [0x2 2 1 [18 0] [0 4]] (REQUEST)
r 0.003727889 _18_ MAC  --- 0 AODV 48 [0 ffffffff e 800] ------- [14:255 -1:255 29 0] [0x2 2 1 [18 0] [0 4]] (REQUEST)
r 0.003727933 _17_ MAC  --- 0 AODV 48 [0 ffffffff e 800] ------- [14:255 -1:255 29 0] [0x2 2 1 [18 0] [0 4]] (REQUEST)
r 0.003727960 _2_ MAC  --- 0 AODV 48 [0 ffffffff e 800] ------- [14:255 -1:255 29 0] [0x2 2 1 [18 0] [0 4]] (REQUEST)
r 0.003728107 _11_ MAC  --- 0 AODV 48 [0 ffffffff e 800] ------- [14:255 -1:255 29 0] [0x2 2 1 [18 0] [0 4]] (REQUEST)
r 0.003728163 _19_ MAC  --- 0 AODV 48 [0 ffffffff e 800] ------- [14:255 -1:255 29 0] [0x2 2 1 [18 0] [0 4]] (REQUEST)
r 0.003728333 _22_ MAC  --- 0 AODV 48 [0 ffffffff e 800] ------- [14:255 -1:255 29 0] [0x2 2 1 [18 0] [0 4]] (REQUEST)
r 0.003728376 _13_ MAC  --- 0 AODV 48 [0 ffffffff e 800] ------- [14:255 -1:255 29 0] [0x2 2 1 [18 0] [0 4]] (REQUEST)
r 0.003728768 _20_ MAC  --- 0 AODV 48 [0 ffffffff e 800] ------- [14:255 -1:255 29 0] [0x2 2 1 [18 0] [0 4]] (REQUEST)
r 0.003728925 _21_ MAC  --- 0 AODV 48 [0 ffffffff e 800] ------- [14:255 -1:255 29 0] [0x2 2 1 [18 0] [0 4]] (REQUEST)
r 0.003730577 _1_ MAC  --- 0 AODV 48 [0 ffffffff e 800] ------- [14:255 -1:255 29 0] [0x2 2 1 [18 0] [0 4]] (REQUEST)
r 0.003752256 _9_ RTR  --- 0 AODV 48 [0 ffffffff e 800] ------- [14:255 -1:255 29 0] [0x2 2 1 [18 0] [0 4]] (REQUEST)
r 0.003752375 _7_ RTR  --- 0 AODV 48 [0 ffffffff e 800] ------- [14:255 -1:255 29 0] [0x2 2 1 [18 0] [0 4]] (REQUEST)
r 0.003752409 _4_ RTR  --- 0 AODV 48 [0 ffffffff e 800] ------- [14:255 -1:255 29 0] [0x2 2 1 [18 0] [0 4]] (REQUEST)
r 0.003752470 _0_ RTR  --- 0 AODV 48 [0 ffffffff e 800] ------- [14:255 -1:255 29 0] [0x2 2 1 [18 0] [0 4]] (REQUEST)
r 0.003752479 _15_ RTR  --- 0 AODV 48 [0 ffffffff e 800] ------- [14:255 -1:255 29 0] [0x2 2 1 [18 0] [0 4]] (REQUEST)
r 0.003752620 _8_ RTR  --- 0 AODV 48 [0 ffffffff e 800] ------- [14:255 -1:255 29 0] [0x2 2 1 [18 0] [0 4]] (REQUEST)
r 0.003752700 _10_ RTR  --- 0 AODV 48 [0 ffffffff e 800] ------- [14:255 -1:255 29 0] [0x2 2 1 [18 0] [0 4]] (REQUEST)
r 0.003752710 _3_ RTR  --- 0 AODV 48 [0 ffffffff e 800] ------- [14:255 -1:255 29 0] [0x2 2 1 [18 0] [0 4]] (REQUEST)
r 0.003752740 _5_ RTR  --- 0 AODV 48 [0 ffffffff e 800] ------- [14:255 -1:255 29 0] [0x2 2 1 [18 0] [0 4]] (REQUEST)
r 0.003752753 _12_ RTR  --- 0 AODV 48 [0 ffffffff e 800] ------- [14:255 -1:255 29 0] [0x2 2 1 [18 0] [0 4]] (REQUEST)
r 0.003752853 _6_ RTR  --- 0 AODV 48 [0 ffffffff e 800] ------- [14:255 -1:255 29 0] [0x2 2 1 [18 0] [0 4]] (REQUEST)
r 0.003752865 _16_ RTR  --- 0 AODV 48 [0 ffffffff e 800] ------- [14:255 -1:255 29 0] [0x2 2 1 [18 0] [0 4]] (REQUEST)
r 0.003752889 _18_ RTR  --- 0 AODV 48 [0 ffffffff e 800] ------- [14:255 -1:255 29 0] [0x2 2 1 [18 0] [0 4]] (REQUEST)
r 0.003752933 _17_ RTR  --- 0 AODV 48 [0 ffffffff e 800] ------- [14:255 -1:255 29 0] [0x2 2 1 [18 0] [0 4]] (REQUEST)
r 0.003752960 _2_ RTR  --- 0 AODV 48 [0 ffffffff e 800] ------- [14:255 -1:255 29 0] [0x2 2 1 [18 0] [0 4]] (REQUEST)
r 0.003753107 _11_ RTR  --- 0 AODV 48 [0 ffffffff e 800] ------- [14:255 -1:255 29 0] [0x2 2 1 [18 0] [0 4]] (REQUEST)
r 0.003753163 _19_ RTR  --- 0 AODV 48 [0 ffffffff e 800] ------- [14:255 -1:255 29 0] [0x2 2 1 [18 0] [0 4]] (REQUEST)
r 0.003753333 _22_ RTR  --- 0 AODV 48 [0 ffffffff e 800] ------- [14:255 -1:255 29 0] [0x2 2 1 [18 0] [0 4]] (REQUEST)
r 0.003753376 _13_ RTR  --- 0 AODV 48 [0 ffffffff e 800] ------- [14:255 -1:255 29 0] [0x2 2 1 [18 0] [0 4]] (REQUEST)
r 0.003753768 _20_ RTR  --- 0 AODV 48 [0 ffffffff e 800] ------- [14:255 -1:255 29 0] [0x2 2 1 [18 0] [0 4]] (REQUEST)
r 0.003753925 _21_ RTR  --- 0 AODV 48 [0 ffffffff e 800] ------- [14:255 -1:255 29 0] [0x2 2 1 [18 0] [0 4]] (REQUEST)
r 0.003755577 _1_ RTR  --- 0 AODV 48 [0 ffffffff e 800] ------- [14:255 -1:255 29 0] [0x2 2 1 [18 0] [0 4]] (REQUEST)
s 0.003784469 _7_ RTR  --- 0 AODV 48 [0 ffffffff 0 800] ------- [7:255 -1:255 29 0] [0x2 2 1 [18 0] [0 4]] (REQUEST)
s 0.003817470 _0_ MAC  --- 0 RTS 44 [52e 12 0 0] 
r 0.004170003 _18_ MAC  --- 0 RTS 44 [52e 12 0 0] 
s 0.004180003 _18_ MAC  --- 0 CTS 38 [3f4 0 0 0] 
s 0.004240567 _5_ RTR  --- 0 AODV 48 [0 ffffffff 0 800] ------- [5:255 -1:255 29 0] [0x2 2 1 [18 0] [0 4]] (REQUEST)
s 0.004363372 _20_ RTR  --- 0 AODV 48 [0 ffffffff 0 800] ------- [20:255 -1:255 29 0] [0x2 2 1 [18 0] [0 4]] (REQUEST)
r 0.004484536 _0_ MAC  --- 0 CTS 38 [3f4 0 0 0] 
s 0.004494536 _0_ MAC  --- 0 ARP 86 [13a 12 0 806] ------- [REPLY 0/0 18/18]
s 0.004758336 _11_ RTR  --- 0 AODV 48 [0 ffffffff 0 800] ------- [11:255 -1:255 29 0] [0x2 2 1 [18 0] [0 4]] (REQUEST)
r 0.005183070 _18_ MAC  --- 0 ARP 28 [13a 12 0 806] ------- [REPLY 0/0 18/18]
s 0.005193070 _18_ MAC  --- 0 ACK 38 [0 0 0 0] 
r 0.005497603 _0_ MAC  --- 0 ACK 38 [0 0 0 0] 
s 0.005548682 _11_ MAC  --- 0 AODV 106 [0 ffffffff b 800] ------- [11:255 -1:255 29 0] [0x2 2 1 [18 0] [0 4]] (REQUEST)
s 0.005561612 _9_ RTR  --- 0 AODV 48 [0 ffffffff 0 800] ------- [9:255 -1:255 29 0] [0x2 2 1 [18 0] [0 4]] (REQUEST)
s 0.006094204 _13_ RTR  --- 0 AODV 48 [0 ffffffff 0 800] ------- [13:255 -1:255 29 0] [0x2 2 1 [18 0] [0 4]] (REQUEST)
s 0.006234123 _16_ RTR  --- 0 AODV 48 [0 ffffffff 0 800] ------- [16:255 -1:255 29 0] [0x2 2 1 [18 0] [0 4]] (REQUEST)
r 0.006397180 _8_ MAC  --- 0 AODV 48 [0 ffffffff b 800] ------- [11:255 -1:255 29 0] [0x2 2 1 [18 0] [0 4]] (REQUEST)
r 0.006397213 _13_ MAC  --- 0 AODV 48 [0 ffffffff b 800] ------- [11:255 -1:255 29 0] [0x2 2 1 [18 0] [0 4]] (REQUEST)
r 0.006397344 _12_ MAC  --- 0 AODV 48 [0 ffffffff b 800] ------- [11:255 -1:255 29 0] [0x2 2 1 [18 0] [0 4]] (REQUEST)
r 0.006397370 _6_ MAC  --- 0 AODV 48 [0 ffffffff b 800] ------- [11:255 -1:255 29 0] [0x2 2 1 [18 0] [0 4]] (REQUEST)
r 0.006397528 _7_ MAC  --- 0 AODV 48 [0 ffffffff b 800] ------- [11:255 -1:255 29 0] [0x2 2 1 [18 0] [0 4]] (REQUEST)
r 0.006397671 _19_ MAC  --- 0 AODV 48 [0 ffffffff b 800] ------- [11:255 -1:255 29 0] [0x2 2 1 [18 0] [0 4]] (REQUEST)
r 0.006397788 _20_ MAC  --- 0 AODV 48 [0 ffffffff b 800] ------- [11:255 -1:255 29 0] [0x2 2 1 [18 0] [0 4]] (REQUEST)
r 0.006397807 _5_ MAC  --- 0 AODV 48 [0 ffffffff b 800] ------- [11:255 -1:255 29 0] [0x2 2 1 [18 0] [0 4]] (REQUEST)
r 0.006397811 _0_ MAC  --- 0 AODV 48 [0 ffffffff b 800] ------- [11:255 -1:255 29 0] [0x2 2 1 [18 0] [0 4]] (REQUEST)
r 0.006397874 _14_ MAC  --- 0 AODV 48 [0 ffffffff b 800] ------- [11:255 -1:255 29 0] [0x2 2 1 [18 0] [0 4]] (REQUEST)
r 0.006398068 _4_ MAC  --- 0 AODV 48 [0 ffffffff b 800] ------- [11:255 -1:255 29 0] [0x2 2 1 [18 0] [0 4]] (REQUEST)
r 0.006398108 _22_ MAC  --- 0 AODV 48 [0 ffffffff b 800] ------- [11:255 -1:255 29 0] [0x2 2 1 [18 0] [0 4]] (REQUEST)
r 0.006398215 _9_ MAC  --- 0 AODV 48 [0 ffffffff b 800] ------- [11:255 -1:255 29 0] [0x2 2 1 [18 0] [0 4]] (REQUEST)
r 0.006398266 _21_ MAC  --- 0 AODV 48 [0 ffffffff b 800] ------- [11:255 -1:255 29 0] [0x2 2 1 [18 0] [0 4]] (REQUEST)
r 0.006398273 _15_ MAC  --- 0 AODV 48 [0 ffffffff b 800] ------- [11:255 -1:255 29 0] [0x2 2 1 [18 0] [0 4]] (REQUEST)
r 0.006398295 _18_ MAC  --- 0 AODV 48 [0 ffffffff b 800] ------- [11:255 -1:255 29 0] [0x2 2 1 [18 0] [0 4]] (REQUEST)
r 0.006398361 _2_ MAC  --- 0 AODV 48 [0 ffffffff b 800] ------- [11:255 -1:255 29 0] [0x2 2 1 [18 0] [0 4]] (REQUEST)
r 0.006398493 _3_ MAC  --- 0 AODV 48 [0 ffffffff b 800] ------- [11:255 -1:255 29 0] [0x2 2 1 [18 0] [0 4]] (REQUEST)
r 0.006398523 _17_ MAC  --- 0 AODV 48 [0 ffffffff b 800] ------- [11:255 -1:255 29 0] [0x2 2 1 [18 0] [0 4]] (REQUEST)
r 0.006398659 _10_ MAC  --- 0 AODV 48 [0 ffffffff b 800] ------- [11:255 -1:255 29 0] [0x2 2 1 [18 0] [0 4]] (REQUEST)
r 0.006398699 _16_ MAC  --- 0 AODV 48 [0 ffffffff b 800] ------- [11:255 -1:255 29 0] [0x2 2 1 [18 0] [0 4]] (REQUEST)
r 0.006400250 _1_ MAC  --- 0 AODV 48 [0 ffffffff b 800] ------- [11:255 -1:255 29 0] [0x2 2 1 [18 0] [0 4]] (REQUEST)
s 0.006417464 _4_ RTR  --- 0 AODV 48 [0 ffffffff 0 800] ------- [4:255 -1:255 29 0] [0x2 2 1 [18 0] [0 4]] (REQUEST)
r 0.006422180 _8_ RTR  --- 0 AODV 48 [0 ffffffff b 800] ------- [11:255 -1:255 29 0] [0x2 2 1 [18 0] [0 4]] (REQUEST)
r 0.006422213 _13_ RTR  --- 0 AODV 48 [0 ffffffff b 800] ------- [11:255 -1:255 29 0] [0x2 2 1 [18 0] [0 4]] (REQUEST)
r 0.006422344 _12_ RTR  --- 0 AODV 48 [0 ffffffff b 800] ------- [11:255 -1:255 29 0] [0x2 2 1 [18 0] [0 4]] (REQUEST)
r 0.006422370 _6_ RTR  --- 0 AODV 48 [0 ffffffff b 800] ------- [11:255 -1:255 29 0] [0x2 2 1 [18 0] [0 4]] (REQUEST)
r 0.006422528 _7_ RTR  --- 0 AODV 48 [0 ffffffff b 800] ------- [11:255 -1:255 29 0] [0x2 2 1 [18 0] [0 4]] (REQUEST)
r 0.006422671 _19_ RTR  --- 0 AODV 48 [0 ffffffff b 800] ------- [11:255 -1:255 29 0] [0x2 2 1 [18 0] [0 4]] (REQUEST)
r 0.006422788 _20_ RTR  --- 0 AODV 48 [0 ffffffff b 800] ------- [11:255 -1:255 29 0] [0x2 2 1 [18 0] [0 4]] (REQUEST)
r 0.006422807 _5_ RTR  --- 0 AODV 48 [0 ffffffff b 800] ------- [11:255 -1:255 29 0] [0x2 2 1 [18 0] [0 4]] (REQUEST)
r 0.006422811 _0_ RTR  --- 0 AODV 48 [0 ffffffff b 800] ------- [11:255 -1:255 29 0] [0x2 2 1 [18 0] [0 4]] (REQUEST)
r 0.006422874 _14_ RTR  --- 0 AODV 48 [0 ffffffff b 800] ------- [11:255 -1:255 29 0] [0x2 2 1 [18 0] [0 4]] (REQUEST)
r 0.006423068 _4_ RTR  --- 0 AODV 48 [0 ffffffff b 800] ------- [11:255 -1:255 29 0] [0x2 2 1 [18 0] [0 4]] (REQUEST)
r 0.006423108 _22_ RTR  --- 0 AODV 48 [0 ffffffff b 800] ------- [11:255 -1:255 29 0] [0x2 2 1 [18 0] [0 4]] (REQUEST)
r 0.006423215 _9_ RTR  --- 0 AODV 48 [0 ffffffff b 800] ------- [11:255 -1:255 29 0] [0x2 2 1 [18 0] [0 4]] (REQUEST)
r 0.006423266 _21_ RTR  --- 0 AODV 48 [0 ffffffff b 800] ------- [11:255 -1:255 29 0] [0x2 2 1 [18 0] [0 4]] (REQUEST)
r 0.006423273 _15_ RTR  --- 0 AODV 48 [0 ffffffff b 800] ------- [11:255 -1:255 29 0] [0x2 2 1 [18 0] [0 4]] (REQUEST)
r 0.006423295 _18_ RTR  --- 0 AODV 48 [0 ffffffff b 800] ------- [11:255 -1:255 29 0] [0x2 2 1 [18 0] [0 4]] (REQUEST)
r 0.006423361 _2_ RTR  --- 0 AODV 48 [0 ffffffff b 800] ------- [11:255 -1:255 29 0] [0x2 2 1 [18 0] [0 4]] (REQUEST)
r 0.006423493 _3_ RTR  --- 0 AODV 48 [0 ffffffff b 800] ------- [11:255 -1:255 29 0] [0x2 2 1 [18 0] [0 4]] (REQUEST)
r 0.006423523 _17_ RTR  --- 0 AODV 48 [0 ffffffff b 800] ------- [11:255 -1:255 29 0] [0x2 2 1 [18 0] [0 4]] (REQUEST)
r 0.006423659 _10_ RTR  --- 0 AODV 48 [0 ffffffff b 800] ------- [11:255 -1:255 29 0] [0x2 2 1 [18 0] [0 4]] (REQUEST)
r 0.006423699 _16_ RTR  --- 0 AODV 48 [0 ffffffff b 800] ------- [11:255 -1:255 29 0] [0x2 2 1 [18 0] [0 4]] (REQUEST)
r 0.006425250 _1_ RTR  --- 0 AODV 48 [0 ffffffff b 800] ------- [11:255 -1:255 29 0] [0x2 2 1 [18 0] [0 4]] (REQUEST)
s 0.006467807 _5_ MAC  --- 0 AODV 106 [0 ffffffff 5 800] ------- [5:255 -1:255 29 0] [0x2 2 1 [18 0] [0 4]] (REQUEST)
s 0.007211327 _15_ RTR  --- 0 AODV 48 [0 ffffffff 0 800] ------- [15:255 -1:255 29 0] [0x2 2 1 [18 0] [0 4]] (REQUEST)
r 0.007316272 _6_ MAC  --- 0 AODV 48 [0 ffffffff 5 800] ------- [5:255 -1:255 29 0] [0x2 2 1 [18 0] [0 4]] (REQUEST)
r 0.007316304 _7_ MAC  --- 0 AODV 48 [0 ffffffff 5 800] ------- [5:255 -1:255 29 0] [0x2 2 1 [18 0] [0 4]] (REQUEST)
r 0.007316336 _4_ MAC  --- 0 AODV 48 [0 ffffffff 5 800] ------- [5:255 -1:255 29 0] [0x2 2 1 [18 0] [0 4]] (REQUEST)
r 0.007316367 _2_ MAC  --- 0 AODV 48 [0 ffffffff 5 800] ------- [5:255 -1:255 29 0] [0x2 2 1 [18 0] [0 4]] (REQUEST)
r 0.007316562 _8_ MAC  --- 0 AODV 48 [0 ffffffff 5 800] ------- [5:255 -1:255 29 0] [0x2 2 1 [18 0] [0 4]] (REQUEST)
r 0.007316632 _14_ MAC  --- 0 AODV 48 [0 ffffffff 5 800] ------- [5:255 -1:255 29 0] [0x2 2 1 [18 0] [0 4]] (REQUEST)
r 0.007316684 _3_ MAC  --- 0 AODV 48 [0 ffffffff 5 800] ------- [5:255 -1:255 29 0] [0x2 2 1 [18 0] [0 4]] (REQUEST)
r 0.007316832 _9_ MAC  --- 0 AODV 48 [0 ffffffff 5 800] ------- [5:255 -1:255 29 0] [0x2 2 1 [18 0] [0 4]] (REQUEST)
r 0.007316932 _11_ MAC  --- 0 AODV 48 [0 ffffffff 5 800] ------- [5:255 -1:255 29 0] [0x2 2 1 [18 0] [0 4]] (REQUEST)
r 0.007317055 _12_ MAC  --- 0 AODV 48 [0 ffffffff 5 800] ------- [5:255 -1:255 29 0] [0x2 2 1 [18 0] [0 4]] (REQUEST)
r 0.007317085 _0_ MAC  --- 0 AODV 48 [0 ffffffff 5 800] ------- [5:255 -1:255 29 0] [0x2 2 1 [18 0] [0 4]] (REQUEST)
r 0.007317160 _10_ MAC  --- 0 AODV 48 [0 ffffffff 5 800] ------- [5:255 -1:255 29 0] [0x2 2 1 [18 0] [0 4]] (REQUEST)
r 0.007317190 _15_ MAC  --- 0 AODV 48 [0 ffffffff 5 800] ------- [5:255 -1:255 29 0] [0x2 2 1 [18 0] [0 4]] (REQUEST)
r 0.007317419 _13_ MAC  --- 0 AODV 48 [0 ffffffff 5 800] ------- [5:255 -1:255 29 0] [0x2 2 1 [18 0] [0 4]] (REQUEST)
r 0.007317539 _16_ MAC  --- 0 AODV 48 [0 ffffffff 5 800] ------- [5:255 -1:255 29 0] [0x2 2 1 [18 0] [0 4]] (REQUEST)
r 0.007317548 _19_ MAC  --- 0 AODV 48 [0 ffffffff 5 800] ------- [5:255 -1:255 29 0] [0x2 2 1 [18 0] [0 4]] (REQUEST)
r 0.007317581 _18_ MAC  --- 0 AODV 48 [0 ffffffff 5 800] ------- [5:255 -1:255 29 0] [0x2 2 1 [18 0] [0 4]] (REQUEST)
r 0.007317650 _17_ MAC  --- 0 AODV 48 [0 ffffffff 5 800] ------- [5:255 -1:255 29 0] [0x2 2 1 [18 0] [0 4]] (REQUEST)
r 0.007317858 _22_ MAC  --- 0 AODV 48 [0 ffffffff 5 800] ------- [5:255 -1:255 29 0] [0x2 2 1 [18 0] [0 4]] (REQUEST)
r 0.007317957 _20_ MAC  --- 0 AODV 48 [0 ffffffff 5 800] ------- [5:255 -1:255 29 0] [0x2 2 1 [18 0] [0 4]] (REQUEST)
r 0.007318301 _21_ MAC  --- 0 AODV 48 [0 ffffffff 5 800] ------- [5:255 -1:255 29 0] [0x2 2 1 [18 0] [0 4]] (REQUEST)
r 0.007320141 _1_ MAC  --- 0 AODV 48 [0 ffffffff 5 800] ------- [5:255 -1:255 29 0] [0x2 2 1 [18 0] [0 4]] (REQUEST)
r 0.007341272 _6_ RTR  --- 0 AODV 48 [0 ffffffff 5 800] ------- [5:255 -1:255 29 0] [0x2 2 1 [18 0] [0 4]] (REQUEST)
r 0.007341304 _7_ RTR  --- 0 AODV 48 [0 ffffffff 5 800] ------- [5:255 -1:255 29 0] [0x2 2 1 [18 0] [0 4]] (REQUEST)
r 0.007341336 _4_ RTR  --- 0 AODV 48 [0 ffffffff 5 800] ------- [5:255 -1:255 29 0] [0x2 2 1 [18 0] [0 4]] (REQUEST)
r 0.007341367 _2_ RTR  --- 0 AODV 48 [0 ffffffff 5 800] ------- [5:255 -1:255 29 0] [0x2 2 1 [18 0] [0 4]] (REQUEST)
r 0.007341562 _8_ RTR  --- 0 AODV 48 [0 ffffffff 5 800] ------- [5:255 -1:255 29 0] [0x2 2 1 [18 0] [0 4]] (REQUEST)
r 0.007341632 _14_ RTR  --- 0 AODV 48 [0 ffffffff 5 800] ------- [5:255 -1:255 29 0] [0x2 2 1 [18 0] [0 4]] (REQUEST)
r 0.007341684 _3_ RTR  --- 0 AODV 48 [0 ffffffff 5 800] ------- [5:255 -1:255 29 0] [0x2 2 1 [18 0] [0 4]] (REQUEST)
r 0.007341832 _9_ RTR  --- 0 AODV 48 [0 ffffffff 5 800] ------- [5:255 -1:255 29 0] [0x2 2 1 [18 0] [0 4]] (REQUEST)
r 0.007341932 _11_ RTR  --- 0 AODV 48 [0 ffffffff 5 800] ------- [5:255 -1:255 29 0] [0x2 2 1 [18 0] [0 4]] (REQUEST)
r 0.007342055 _12_ RTR  --- 0 AODV 48 [0 ffffffff 5 800] ------- [5:255 -1:255 29 0] [0x2 2 1 [18 0] [0 4]] (REQUEST)
r 0.007342085 _0_ RTR  --- 0 AODV 48 [0 ffffffff 5 800] ------- [5:255 -1:255 29 0] [0x2 2 1 [18 0] [0 4]] (REQUEST)
r 0.007342160 _10_ RTR  --- 0 AODV 48 [0 ffffffff 5 800] ------- [5:255 -1:255 29 0] [0x2 2 1 [18 0] [0 4]] (REQUEST)
r 0.007342190 _15_ RTR  --- 0 AODV 48 [0 ffffffff 5 800] ------- [5:255 -1:255 29 0] [0x2 2 1 [18 0] [0 4]] (REQUEST)
r 0.007342419 _13_ RTR  --- 0 AODV 48 [0 ffffffff 5 800] ------- [5:255 -1:255 29 0] [0x2 2 1 [18 0] [0 4]] (REQUEST)
r 0.007342539 _16_ RTR  --- 0 AODV 48 [0 ffffffff 5 800] ------- [5:255 -1:255 29 0] [0x2 2 1 [18 0] [0 4]] (REQUEST)
r 0.007342548 _19_ RTR  --- 0 AODV 48 [0 ffffffff 5 800] ------- [5:255 -1:255 29 0] [0x2 2 1 [18 0] [0 4]] (REQUEST)
r 0.007342581 _18_ RTR  --- 0 AODV 48 [0 ffffffff 5 800] ------- [5:255 -1:255 29 0] [0x2 2 1 [18 0] [0 4]] (REQUEST)
r 0.007342650 _17_ RTR  --- 0 AODV 48 [0 ffffffff 5 800] ------- [5:255 -1:255 29 0] [0x2 2 1 [18 0] [0 4]] (REQUEST)
r 0.007342858 _22_ RTR  --- 0 AODV 48 [0 ffffffff 5 800] ------- [5:255 -1:255 29 0] [0x2 2 1 [18 0] [0 4]] (REQUEST)
r 0.007342957 _20_ RTR  --- 0 AODV 48 [0 ffffffff 5 800] ------- [5:255 -1:255 29 0] [0x2 2 1 [18 0] [0 4]] (REQUEST)
r 0.007343301 _21_ RTR  --- 0 AODV 48 [0 ffffffff 5 800] ------- [5:255 -1:255 29 0] [0x2 2 1 [18 0] [0 4]] (REQUEST)
r 0.007345141 _1_ RTR  --- 0 AODV 48 [0 ffffffff 5 800] ------- [5:255 -1:255 29 0] [0x2 2 1 [18 0] [0 4]] (REQUEST)
s 0.007346002 _6_ RTR  --- 0 AODV 48 [0 ffffffff 0 800] ------- [6:255 -1:255 29 0] [0x2 2 1 [18 0] [0 4]] (REQUEST)
s 0.007387548 _19_ MAC  --- 0 AODV 106 [0 ffffffff 13 800] ------- [19:255 -1:255 29 0] [0x2 2 1 [18 0] [0 4]] (REQUEST)
s 0.007387581 _18_ MAC  --- 0 RTS 44 [5ae 0 12 0] 
D 0.007388310 _0_ MAC  COL 0 RTS 44 [5ae 0 12 0] 
s 0.007799227 _10_ RTR  --- 0 AODV 48 [0 ffffffff 0 800] ------- [10:255 -1:255 29 0] [0x2 2 1 [18 0] [0 4]] (REQUEST)
D 0.008235993 _22_ MAC  COL 0 AODV 106 [0 ffffffff 13 800] ------- [19:255 -1:255 29 0] [0x2 2 1 [18 0] [0 4]] (REQUEST)
r 0.008236040 _12_ MAC  --- 0 AODV 48 [0 ffffffff 13 800] ------- [19:255 -1:255 29 0] [0x2 2 1 [18 0] [0 4]] (REQUEST)
r 0.008236229 _13_ MAC  --- 0 AODV 48 [0 ffffffff 13 800] ------- [19:255 -1:255 29 0] [0x2 2 1 [18 0] [0 4]] (REQUEST)
r 0.008236244 _20_ MAC  --- 0 AODV 48 [0 ffffffff 13 800] ------- [19:255 -1:255 29 0] [0x2 2 1 [18 0] [0 4]] (REQUEST)
D 0.008236310 _0_ MAC  COL 0 AODV 106 [0 ffffffff 13 800] ------- [19:255 -1:255 29 0] [0x2 2 1 [18 0] [0 4]] (REQUEST)
r 0.008236319 _21_ MAC  --- 0 AODV 48 [0 ffffffff 13 800] ------- [19:255 -1:255 29 0] [0x2 2 1 [18 0] [0 4]] (REQUEST)
D 0.008236536 _11_ MAC  COL 0 AODV 106 [0 ffffffff 13 800] ------- [19:255 -1:255 29 0] [0x2 2 1 [18 0] [0 4]] (REQUEST)
D 0.008236558 _8_ MAC  COL 0 AODV 106 [0 ffffffff 13 800] ------- [19:255 -1:255 29 0] [0x2 2 1 [18 0] [0 4]] (REQUEST)
D 0.008236795 _14_ MAC  COL 0 AODV 106 [0 ffffffff 13 800] ------- [19:255 -1:255 29 0] [0x2 2 1 [18 0] [0 4]] (REQUEST)
D 0.008236807 _7_ MAC  COL 0 AODV 106 [0 ffffffff 13 800] ------- [19:255 -1:255 29 0] [0x2 2 1 [18 0] [0 4]] (REQUEST)
D 0.008237013 _6_ MAC  COL 0 AODV 106 [0 ffffffff 13 800] ------- [19:255 -1:255 29 0] [0x2 2 1 [18 0] [0 4]] (REQUEST)
D 0.008237039 _9_ MAC  COL 0 AODV 106 [0 ffffffff 13 800] ------- [19:255 -1:255 29 0] [0x2 2 1 [18 0] [0 4]] (REQUEST)
D 0.008237241 _4_ MAC  COL 0 AODV 106 [0 ffffffff 13 800] ------- [19:255 -1:255 29 0] [0x2 2 1 [18 0] [0 4]] (REQUEST)
D 0.008237288 _5_ MAC  COL 0 AODV 106 [0 ffffffff 13 800] ------- [19:255 -1:255 29 0] [0x2 2 1 [18 0] [0 4]] (REQUEST)
D 0.008237421 _10_ MAC  COL 0 AODV 106 [0 ffffffff 13 800] ------- [19:255 -1:255 29 0] [0x2 2 1 [18 0] [0 4]] (REQUEST)
D 0.008237590 _3_ MAC  COL 0 AODV 106 [0 ffffffff 13 800] ------- [19:255 -1:255 29 0] [0x2 2 1 [18 0] [0 4]] (REQUEST)
D 0.008237733 _2_ MAC  COL 0 AODV 106 [0 ffffffff 13 800] ------- [19:255 -1:255 29 0] [0x2 2 1 [18 0] [0 4]] (REQUEST)
D 0.008238178 _1_ MAC  COL 0 AODV 106 [0 ffffffff 13 800] ------- [19:255 -1:255 29 0] [0x2 2 1 [18 0] [0 4]] (REQUEST)
r 0.008261040 _12_ RTR  --- 0 AODV 48 [0 ffffffff 13 800] ------- [19:255 -1:255 29 0] [0x2 2 1 [18 0] [0 4]] (REQUEST)
r 0.008261229 _13_ RTR  --- 0 AODV 48 [0 ffffffff 13 800] ------- [19:255 -1:255 29 0] [0x2 2 1 [18 0] [0 4]] (REQUEST)
r 0.008261244 _20_ RTR  --- 0 AODV 48 [0 ffffffff 13 800] ------- [19:255 -1:255 29 0] [0x2 2 1 [18 0] [0 4]] (REQUEST)
r 0.008261319 _21_ RTR  --- 0 AODV 48 [0 ffffffff 13 800] ------- [19:255 -1:255 29 0] [0x2 2 1 [18 0] [0 4]] (REQUEST)
s 0.008314570 _3_ RTR  --- 0 AODV 48 [0 ffffffff 0 800] ------- [3:255 -1:255 29 0] [0x2 2 1 [18 0] [0 4]] (REQUEST)
s 0.008564909 _8_ RTR  --- 0 AODV 48 [0 ffffffff 0 800] ------- [8:255 -1:255 29 0] [0x2 2 1 [18 0] [0 4]] (REQUEST)
s 0.008646229 _13_ MAC  --- 0 AODV 106 [0 ffffffff d 800] ------- [13:255 -1:255 29 0] [0x2 2 1 [18 0] [0 4]] (REQUEST)
r 0.009494760 _11_ MAC  --- 0 AODV 48 [0 ffffffff d 800] ------- [13:255 -1:255 29 0] [0x2 2 1 [18 0] [0 4]] (REQUEST)
r 0.009494805 _20_ MAC  --- 0 AODV 48 [0 ffffffff d 800] ------- [13:255 -1:255 29 0] [0x2 2 1 [18 0] [0 4]] (REQUEST)
r 0.009494897 _12_ MAC  --- 0 AODV 48 [0 ffffffff d 800] ------- [13:255 -1:255 29 0] [0x2 2 1 [18 0] [0 4]] (REQUEST)
r 0.009494911 _19_ MAC  --- 0 AODV 48 [0 ffffffff d 800] ------- [13:255 -1:255 29 0] [0x2 2 1 [18 0] [0 4]] (REQUEST)
r 0.009495115 _8_ MAC  --- 0 AODV 48 [0 ffffffff d 800] ------- [13:255 -1:255 29 0] [0x2 2 1 [18 0] [0 4]] (REQUEST)
r 0.009495321 _21_ MAC  --- 0 AODV 48 [0 ffffffff d 800] ------- [13:255 -1:255 29 0] [0x2 2 1 [18 0] [0 4]] (REQUEST)
r 0.009495344 _22_ MAC  --- 0 AODV 48 [0 ffffffff d 800] ------- [13:255 -1:255 29 0] [0x2 2 1 [18 0] [0 4]] (REQUEST)
r 0.009495411 _0_ MAC  --- 0 AODV 48 [0 ffffffff d 800] ------- [13:255 -1:255 29 0] [0x2 2 1 [18 0] [0 4]] (REQUEST)